 vasp.6.5.0 16Dec24 (build May  7 2025 20:30:25) gamma-only                      
 executed on             LinuxGNU date 2025.06.05  05:02:00
 running   48 mpi-ranks, with    1 threads/rank, on    2 nodes
 distrk:  each k-point on   48 cores,    1 groups
 distr:  one band on NCORE=  24 cores,    2 groups


--------------------------------------------------------------------------------------------------------


 INCAR:
   SYSTEM = Au_FRESH_TRAIN	
   ISMEAR = 0 		
   SIGMA = 0.05           	
   IVDW = 12
   ENCUT = 600
   PREC = Normal  	
   LASPH = TRUE 		
   NELM = 250
   EDIFF = 1E-6
   IBRION = 2
   ISIF = 3
   NSW = 0
   EDIFFG = -0.01
   ALGO = Normal
   LREAL = Auto
   LCHARG = False
   ISYM = 0
   POMASS = 12.011 40.078 18.998 2.000 14.001 16.000 32.066
   NCORE = 24
   SYMPREC = 1E-8

 POTCAR:    PAW_PBE C 08Apr2002                   
 POTCAR:    PAW_PBE Ca_sv 06Sep2000               
 POTCAR:    PAW_PBE F 08Apr2002                   
 POTCAR:    PAW_PBE H 15Jun2001                   
 POTCAR:    PAW_PBE N 08Apr2002                   
 POTCAR:    PAW_PBE O 08Apr2002                   
 POTCAR:    PAW_PBE S 06Sep2000                   
 POTCAR:    PAW_PBE C 08Apr2002                   
   VRHFIN =C: s2p2                                                                                  
   LEXCH  = PE                                                                                      
   EATOM  =   147.1560 eV,   10.8157 Ry                                                             
                                                                                                    
   TITEL  = PAW_PBE C 08Apr2002                                                                     
   LULTRA =        F    use ultrasoft PP ?                                                          
   IUNSCR =        1    unscreen: 0-lin 1-nonlin 2-no                                               
   RPACOR =    1.200    partial core radius                                                         
   POMASS =   12.011; ZVAL   =    4.000    mass and valenz                                          
   RCORE  =    1.500    outmost cutoff radius                                                       
   RWIGS  =    1.630; RWIGS  =    0.863    wigner-seitz radius (au A)                               
   ENMAX  =  400.000; ENMIN  =  300.000 eV                                                          
   ICORE  =        2    local potential                                                             
   LCOR   =        T    correct aug charges                                                         
   LPAW   =        T    paw PP                                                                      
   EAUG   =  644.873                                                                                
   DEXC   =    0.000                                                                                
   RMAX   =    1.529    core radius for proj-oper                                                   
   RAUG   =    1.300    factor for augmentation sphere                                              
   RDEP   =    1.501    radius for radial grids                                                     
   RDEPT  =    1.300    core radius for aug-charge                                                  
                                                                                                    
   Atomic configuration                                                                             
    4 entries                                                                                       
     n  l   j            E        occ.                                                              
     1  0  0.50      -273.3789   2.0000                                                             
     2  0  0.50       -13.7508   2.0000                                                             
     2  1  0.50        -5.2854   2.0000                                                             
     3  2  1.50        -5.4423   0.0000                                                             
   Description                                                                                      
     l       E           TYP  RCUT    TYP  RCUT                                                     
     0    -13.7508458     23  1.200                                                                 
     0     -8.2022199     23  1.200                                                                 
     1     -5.2854383     23  1.500                                                                 
     1     34.0145650     23  1.500                                                                 
     2     -5.4423304      7  1.500                                                                 
  local pseudopotential read in
  partial core-charges read in
  partial kinetic energy density read in
  atomic valenz-charges read in
  non local Contribution for L=           0  read in
    real space projection operators read in
  non local Contribution for L=           0  read in
    real space projection operators read in
  non local Contribution for L=           1  read in
    real space projection operators read in
  non local Contribution for L=           1  read in
    real space projection operators read in
    PAW grid and wavefunctions read in

   number of l-projection  operators is LMAX  =           4
   number of lm-projection operators is LMMAX =           8

 POTCAR:    PAW_PBE Ca_sv 06Sep2000               
   VRHFIN =Ca: 3s3p4s                                                                               
   LEXCH  = PE                                                                                      
   EATOM  =  1006.0909 eV,   73.9456 Ry                                                             
                                                                                                    
   TITEL  = PAW_PBE Ca_sv 06Sep2000                                                                 
   LULTRA =        F    use ultrasoft PP ?                                                          
   IUNSCR =        1    unscreen: 0-lin 1-nonlin 2-no                                               
   RPACOR =    2.000    partial core radius                                                         
   POMASS =   40.078; ZVAL   =   10.000    mass and valenz                                          
   RCORE  =    2.300    outmost cutoff radius                                                       
   RWIGS  =    2.500; RWIGS  =    1.323    wigner-seitz radius (au A)                               
   ENMAX  =  266.622; ENMIN  =  199.967 eV                                                          
   RCLOC  =    1.808    cutoff for local pot                                                        
   LCOR   =        T    correct aug charges                                                         
   LPAW   =        T    paw PP                                                                      
   EAUG   =  420.852                                                                                
   RMAX   =    2.359    core radius for proj-oper                                                   
   RAUG   =    1.300    factor for augmentation sphere                                              
   RDEP   =    2.392    radius for radial grids                                                     
   RDEPT  =    1.987    core radius for aug-charge                                                  
                                                                                                    
   Atomic configuration                                                                             
    7 entries                                                                                       
     n  l   j            E        occ.                                                              
     1  0  0.50     -3949.1705   2.0000                                                             
     2  0  0.50      -414.3434   2.0000                                                             
     2  1  1.50      -334.7047   6.0000                                                             
     3  0  0.50       -47.0896   2.0000                                                             
     4  0  0.50        -3.7663   2.0000                                                             
     3  1  1.50       -28.0061   6.0000                                                             
     3  2  1.50        -4.0817   0.0000                                                             
   Description                                                                                      
     l       E           TYP  RCUT    TYP  RCUT                                                     
     0    -47.0896403     23  2.300                                                                 
     0     -3.7663320     23  2.300                                                                 
     1    -28.0060855     23  2.300                                                                 
     1      6.8029130     23  2.300                                                                 
     2     -4.0817478     23  2.300                                                                 
     2      0.4464412     23  2.300                                                                 
  local pseudopotential read in
  partial core-charges read in
  partial kinetic energy density read in
  atomic valenz-charges read in
  non local Contribution for L=           0  read in
    real space projection operators read in
  non local Contribution for L=           0  read in
    real space projection operators read in
  non local Contribution for L=           1  read in
    real space projection operators read in
  non local Contribution for L=           1  read in
    real space projection operators read in
  non local Contribution for L=           2  read in
    real space projection operators read in
  non local Contribution for L=           2  read in
    real space projection operators read in
    PAW grid and wavefunctions read in

   number of l-projection  operators is LMAX  =           6
   number of lm-projection operators is LMMAX =          18

 POTCAR:    PAW_PBE F 08Apr2002                   
   VRHFIN =F: s2p5                                                                                  
   LEXCH  = PE                                                                                      
   EATOM  =   659.6475 eV,   48.4827 Ry                                                             
                                                                                                    
   TITEL  = PAW_PBE F 08Apr2002                                                                     
   LULTRA =        F    use ultrasoft PP ?                                                          
   IUNSCR =        1    unscreen: 0-lin 1-nonlin 2-no                                               
   RPACOR =    1.200    partial core radius                                                         
   POMASS =   18.998; ZVAL   =    7.000    mass and valenz                                          
   RCORE  =    1.520    outmost cutoff radius                                                       
   RWIGS  =    1.500; RWIGS  =    0.794    wigner-seitz radius (au A)                               
   ENMAX  =  400.000; ENMIN  =  300.000 eV                                                          
   ICORE  =        2    local potential                                                             
   LCOR   =        T    correct aug charges                                                         
   LPAW   =        T    paw PP                                                                      
   EAUG   =  613.614                                                                                
   RMAX   =    1.555    core radius for proj-oper                                                   
   RAUG   =    1.300    factor for augmentation sphere                                              
   RDEP   =    1.539    radius for radial grids                                                     
   RDEPT  =    1.299    core radius for aug-charge                                                  
                                                                                                    
   Atomic configuration                                                                             
    4 entries                                                                                       
     n  l   j            E        occ.                                                              
     1  0  0.50      -663.3661   2.0000                                                             
     2  0  0.50       -29.8995   2.0000                                                             
     2  1  0.50       -11.1114   5.0000                                                             
     3  2  1.50       -10.8847   0.0000                                                             
   Description                                                                                      
     l       E           TYP  RCUT    TYP  RCUT                                                     
     0    -29.8995018     23  1.200                                                                 
     0     -9.5240782     23  1.200                                                                 
     1    -11.1113914     23  1.520                                                                 
     1      1.3605826     23  1.520                                                                 
     2    -10.8846608      7  1.500                                                                 
  local pseudopotential read in
  partial core-charges read in
  partial kinetic energy density read in
  atomic valenz-charges read in
  non local Contribution for L=           0  read in
    real space projection operators read in
  non local Contribution for L=           0  read in
    real space projection operators read in
  non local Contribution for L=           1  read in
    real space projection operators read in
  non local Contribution for L=           1  read in
    real space projection operators read in
    PAW grid and wavefunctions read in

   number of l-projection  operators is LMAX  =           4
   number of lm-projection operators is LMMAX =           8

 POTCAR:    PAW_PBE H 15Jun2001                   
   VRHFIN =H: ultrasoft test                                                                        
   LEXCH  = PE                                                                                      
   EATOM  =    12.4884 eV,    0.9179 Ry                                                             
                                                                                                    
   TITEL  = PAW_PBE H 15Jun2001                                                                     
   LULTRA =        F    use ultrasoft PP ?                                                          
   IUNSCR =        0    unscreen: 0-lin 1-nonlin 2-no                                               
   RPACOR =    0.000    partial core radius                                                         
   POMASS =    1.000; ZVAL   =    1.000    mass and valenz                                          
   RCORE  =    1.100    outmost cutoff radius                                                       
   RWIGS  =    0.700; RWIGS  =    0.370    wigner-seitz radius (au A)                               
   ENMAX  =  250.000; ENMIN  =  200.000 eV                                                          
   RCLOC  =    0.701    cutoff for local pot                                                        
   LCOR   =        T    correct aug charges                                                         
   LPAW   =        T    paw PP                                                                      
   EAUG   =  400.000                                                                                
   RMAX   =    1.123    core radius for proj-oper                                                   
   RAUG   =    1.200    factor for augmentation sphere                                              
   RDEP   =    1.112    radius for radial grids                                                     
   RDEPT  =    0.926    core radius for aug-charge                                                  
                                                                                                    
   Atomic configuration                                                                             
    2 entries                                                                                       
     n  l   j            E        occ.                                                              
     1  0  0.50        -6.4927   1.0000                                                             
     2  1  0.50        -3.4015   0.0000                                                             
   Description                                                                                      
     l       E           TYP  RCUT    TYP  RCUT                                                     
     0     -6.4927494     23  1.100                                                                 
     0      6.8029130     23  1.100                                                                 
     1     -4.0817478     23  1.100                                                                 
  local pseudopotential read in
  atomic valenz-charges read in
  non local Contribution for L=           0  read in
    real space projection operators read in
  non local Contribution for L=           0  read in
    real space projection operators read in
  non local Contribution for L=           1  read in
    real space projection operators read in
    PAW grid and wavefunctions read in

   number of l-projection  operators is LMAX  =           3
   number of lm-projection operators is LMMAX =           5

 POTCAR:    PAW_PBE N 08Apr2002                   
   VRHFIN =N: s2p3                                                                                  
   LEXCH  = PE                                                                                      
   EATOM  =   264.5486 eV,   19.4438 Ry                                                             
                                                                                                    
   TITEL  = PAW_PBE N 08Apr2002                                                                     
   LULTRA =        F    use ultrasoft PP ?                                                          
   IUNSCR =        1    unscreen: 0-lin 1-nonlin 2-no                                               
   RPACOR =    1.200    partial core radius                                                         
   POMASS =   14.001; ZVAL   =    5.000    mass and valenz                                          
   RCORE  =    1.500    outmost cutoff radius                                                       
   RWIGS  =    1.400; RWIGS  =    0.741    wigner-seitz radius (au A)                               
   ENMAX  =  400.000; ENMIN  =  300.000 eV                                                          
   ICORE  =        2    local potential                                                             
   LCOR   =        T    correct aug charges                                                         
   LPAW   =        T    paw PP                                                                      
   EAUG   =  627.112                                                                                
   DEXC   =    0.000                                                                                
   RMAX   =    1.529    core radius for proj-oper                                                   
   RAUG   =    1.300    factor for augmentation sphere                                              
   RDEP   =    1.514    radius for radial grids                                                     
   RDEPT  =    1.338    core radius for aug-charge                                                  
                                                                                                    
   Atomic configuration                                                                             
    4 entries                                                                                       
     n  l   j            E        occ.                                                              
     1  0  0.50      -384.7179   2.0000                                                             
     2  0  0.50       -18.5828   2.0000                                                             
     2  1  0.50        -7.0898   3.0000                                                             
     3  2  1.50        -6.8029   0.0000                                                             
   Description                                                                                      
     l       E           TYP  RCUT    TYP  RCUT                                                     
     0    -18.5828119     23  1.200                                                                 
     0    -13.5018863     23  1.200                                                                 
     1     -7.0897853     23  1.500                                                                 
     1      9.5240782     23  1.500                                                                 
     2     -6.8029130      7  1.500                                                                 
  local pseudopotential read in
  partial core-charges read in
  partial kinetic energy density read in
  atomic valenz-charges read in
  non local Contribution for L=           0  read in
    real space projection operators read in
  non local Contribution for L=           0  read in
    real space projection operators read in
  non local Contribution for L=           1  read in
    real space projection operators read in
  non local Contribution for L=           1  read in
    real space projection operators read in
    PAW grid and wavefunctions read in

   number of l-projection  operators is LMAX  =           4
   number of lm-projection operators is LMMAX =           8

 POTCAR:    PAW_PBE O 08Apr2002                   
   VRHFIN =O: s2p4                                                                                  
   LEXCH  = PE                                                                                      
   EATOM  =   432.3788 eV,   31.7789 Ry                                                             
                                                                                                    
   TITEL  = PAW_PBE O 08Apr2002                                                                     
   LULTRA =        F    use ultrasoft PP ?                                                          
   IUNSCR =        1    unscreen: 0-lin 1-nonlin 2-no                                               
   RPACOR =    1.200    partial core radius                                                         
   POMASS =   16.000; ZVAL   =    6.000    mass and valenz                                          
   RCORE  =    1.520    outmost cutoff radius                                                       
   RWIGS  =    1.550; RWIGS  =    0.820    wigner-seitz radius (au A)                               
   ENMAX  =  400.000; ENMIN  =  300.000 eV                                                          
   ICORE  =        2    local potential                                                             
   LCOR   =        T    correct aug charges                                                         
   LPAW   =        T    paw PP                                                                      
   EAUG   =  605.392                                                                                
   DEXC   =    0.000                                                                                
   RMAX   =    1.553    core radius for proj-oper                                                   
   RAUG   =    1.300    factor for augmentation sphere                                              
   RDEP   =    1.550    radius for radial grids                                                     
   RDEPT  =    1.329    core radius for aug-charge                                                  
                                                                                                    
   Atomic configuration                                                                             
    4 entries                                                                                       
     n  l   j            E        occ.                                                              
     1  0  0.50      -514.6923   2.0000                                                             
     2  0  0.50       -23.9615   2.0000                                                             
     2  1  0.50        -9.0305   4.0000                                                             
     3  2  1.50        -9.5241   0.0000                                                             
   Description                                                                                      
     l       E           TYP  RCUT    TYP  RCUT                                                     
     0    -23.9615318     23  1.200                                                                 
     0     -9.5240782     23  1.200                                                                 
     1     -9.0304911     23  1.520                                                                 
     1      8.1634956     23  1.520                                                                 
     2     -9.5240782      7  1.500                                                                 
  local pseudopotential read in
  partial core-charges read in
  partial kinetic energy density read in
  kinetic energy density of atom read in
  atomic valenz-charges read in
  non local Contribution for L=           0  read in
    real space projection operators read in
  non local Contribution for L=           0  read in
    real space projection operators read in
  non local Contribution for L=           1  read in
    real space projection operators read in
  non local Contribution for L=           1  read in
    real space projection operators read in
    PAW grid and wavefunctions read in

   number of l-projection  operators is LMAX  =           4
   number of lm-projection operators is LMMAX =           8

 POTCAR:    PAW_PBE S 06Sep2000                   
   VRHFIN =S : s2p4                                                                                 
   LEXCH  = PE                                                                                      
   EATOM  =   276.8230 eV,   20.3459 Ry                                                             
                                                                                                    
   TITEL  = PAW_PBE S 06Sep2000                                                                     
   LULTRA =        F    use ultrasoft PP ?                                                          
   IUNSCR =        1    unscreen: 0-lin 1-nonlin 2-no                                               
   RPACOR =    1.500    partial core radius                                                         
   POMASS =   32.066; ZVAL   =    6.000    mass and valenz                                          
   RCORE  =    1.900    outmost cutoff radius                                                       
   RWIGS  =    2.200; RWIGS  =    1.164    wigner-seitz radius (au A)                               
   ENMAX  =  258.689; ENMIN  =  194.016 eV                                                          
   ICORE  =        2    local potential                                                             
   LCOR   =        T    correct aug charges                                                         
   LPAW   =        T    paw PP                                                                      
   EAUG   =  335.092                                                                                
   DEXC   =    0.000                                                                                
   RMAX   =    1.942    core radius for proj-oper                                                   
   RAUG   =    1.300    factor for augmentation sphere                                              
   RDEP   =    1.954    radius for radial grids                                                     
   RDEPT  =    1.744    core radius for aug-charge                                                  
                                                                                                    
   Atomic configuration                                                                             
    6 entries                                                                                       
     n  l   j            E        occ.                                                              
     1  0  0.50     -2405.8406   2.0000                                                             
     2  0  0.50      -211.7007   2.0000                                                             
     2  1  1.50      -156.4958   6.0000                                                             
     3  0  0.50       -17.2562   2.0000                                                             
     3  1  0.50        -7.0085   4.0000                                                             
     3  2  1.50        -6.8029   0.0000                                                             
   Description                                                                                      
     l       E           TYP  RCUT    TYP  RCUT                                                     
     0    -17.2561641     23  1.900                                                                 
     0    -15.8743224     23  1.900                                                                 
     1     -7.0085400     23  1.900                                                                 
     1     -2.7779785     23  1.900                                                                 
     2     -6.8029130     23  1.900                                                                 
  local pseudopotential read in
  partial core-charges read in
  partial kinetic energy density read in
  atomic valenz-charges read in
  non local Contribution for L=           0  read in
    real space projection operators read in
  non local Contribution for L=           0  read in
    real space projection operators read in
  non local Contribution for L=           1  read in
    real space projection operators read in
  non local Contribution for L=           1  read in
    real space projection operators read in
    PAW grid and wavefunctions read in

   number of l-projection  operators is LMAX  =           4
   number of lm-projection operators is LMMAX =           8

 Optimization of the real space projectors (new method)

 maximal supplied QI-value         = 25.13
 optimisation between [QCUT,QGAM] = [ 12.32, 24.88] = [ 42.47,173.37] Ry 
 Optimized for a Real-space Cutoff    1.06 Angstroem

   l    n(q)    QCUT    max X(q) W(low)/X(q) W(high)/X(q)  e(spline) 
   0      8    12.315   115.676    0.34E-03    0.18E-03    0.23E-06
   0      8    12.315    87.132    0.34E-03    0.18E-03    0.22E-06
   1      7    12.315     4.429    0.45E-03    0.12E-03    0.18E-06
   1      7    12.315     2.733    0.35E-03    0.97E-04    0.15E-06
 Optimization of the real space projectors (new method)

 maximal supplied QI-value         = 16.25
 optimisation between [QCUT,QGAM] = [ 12.51, 25.03] = [ 43.85,175.40] Ry 
 Optimized for a Real-space Cutoff    1.43 Angstroem

   l    n(q)    QCUT    max X(q) W(low)/X(q) W(high)/X(q)  e(spline) 
   0     11    12.514    11.817    0.25E-04    0.36E-05    0.74E-07
   0     11    12.514     8.461    0.39E-04    0.62E-05    0.15E-06
   1     10    12.514     3.957    0.15E-04    0.37E-05    0.29E-07
   1     10    12.514     4.314    0.11E-03    0.45E-04    0.28E-06
   2     10    12.514    14.565    0.35E-03    0.12E-02    0.20E-05
   2     10    12.514    14.552    0.33E-03    0.11E-02    0.19E-05
 Optimization of the real space projectors (new method)

 maximal supplied QI-value         = 24.76
 optimisation between [QCUT,QGAM] = [ 12.38, 25.00] = [ 42.90,175.06] Ry 
 Optimized for a Real-space Cutoff    1.03 Angstroem

   l    n(q)    QCUT    max X(q) W(low)/X(q) W(high)/X(q)  e(spline) 
   0      8    12.378    14.049    0.35E-03    0.80E-04    0.14E-06
   0      8    12.378     8.945    0.50E-03    0.13E-03    0.19E-06
   1      7    12.378     7.086    0.49E-03    0.21E-03    0.21E-06
   1      7    12.378     6.747    0.44E-03    0.20E-03    0.19E-06
 Optimization of the real space projectors (new method)

 maximal supplied QI-value         = 34.20
 optimisation between [QCUT,QGAM] = [ 12.31, 24.97] = [ 42.46,174.58] Ry 
 Optimized for a Real-space Cutoff    1.00 Angstroem

   l    n(q)    QCUT    max X(q) W(low)/X(q) W(high)/X(q)  e(spline) 
   0      7    12.313    19.460    0.14E-03    0.42E-03    0.16E-06
   0      7    12.313    12.209    0.12E-03    0.40E-03    0.16E-06
   1      7    12.313     4.655    0.33E-03    0.59E-03    0.89E-07
 Optimization of the real space projectors (new method)

 maximal supplied QI-value         = 25.13
 optimisation between [QCUT,QGAM] = [ 12.32, 24.88] = [ 42.47,173.37] Ry 
 Optimized for a Real-space Cutoff    1.20 Angstroem

   l    n(q)    QCUT    max X(q) W(low)/X(q) W(high)/X(q)  e(spline) 
   0      9    12.315    79.467    0.14E-03    0.22E-04    0.37E-06
   0      9    12.315    66.151    0.14E-03    0.23E-04    0.36E-06
   1      8    12.315    22.077    0.30E-03    0.54E-03    0.45E-06
   1      8    12.315    15.894    0.30E-03    0.55E-03    0.45E-06
 Optimization of the real space projectors (new method)

 maximal supplied QI-value         = 24.76
 optimisation between [QCUT,QGAM] = [ 12.38, 25.00] = [ 42.90,175.06] Ry 
 Optimized for a Real-space Cutoff    1.13 Angstroem

   l    n(q)    QCUT    max X(q) W(low)/X(q) W(high)/X(q)  e(spline) 
   0      8    12.378    20.381    0.16E-03    0.54E-05    0.27E-06
   0      8    12.378    15.268    0.17E-03    0.61E-05    0.29E-06
   1      8    12.378     5.964    0.38E-03    0.23E-03    0.28E-06
   1      8    12.378     5.382    0.33E-03    0.20E-03    0.25E-06
 Optimization of the real space projectors (new method)

 maximal supplied QI-value         = 19.84
 optimisation between [QCUT,QGAM] = [ 12.50, 25.00] = [ 43.76,175.03] Ry 
 Optimized for a Real-space Cutoff    1.06 Angstroem

   l    n(q)    QCUT    max X(q) W(low)/X(q) W(high)/X(q)  e(spline) 
   0      8    12.501   187.594    0.26E-03    0.17E-03    0.97E-07
   0      8    12.501   164.243    0.26E-03    0.17E-03    0.96E-07
   1      7    12.501    67.533    0.50E-03    0.61E-03    0.91E-07
   1      7    12.501    50.729    0.48E-03    0.60E-03    0.90E-07
  PAW_PBE C 08Apr2002                   :
 energy of atom  1       EATOM= -147.1560
 kinetic energy error for atom=    0.0057 (will be added to EATOM!!)
  PAW_PBE Ca_sv 06Sep2000               :
 energy of atom  2       EATOM=-1006.0909
 kinetic energy error for atom=    0.0012 (will be added to EATOM!!)
  PAW_PBE F 08Apr2002                   :
 energy of atom  3       EATOM= -659.6475
 kinetic energy error for atom=    0.0256 (will be added to EATOM!!)
  PAW_PBE H 15Jun2001                   :
 energy of atom  4       EATOM=  -12.4884
 kinetic energy error for atom=    0.0004 (will be added to EATOM!!)
  PAW_PBE N 08Apr2002                   :
 energy of atom  5       EATOM= -264.5486
 kinetic energy error for atom=    0.0103 (will be added to EATOM!!)
  PAW_PBE O 08Apr2002                   :
 energy of atom  6       EATOM= -432.3788
 kinetic energy error for atom=    0.0168 (will be added to EATOM!!)
  PAW_PBE S 06Sep2000                   :
 energy of atom  7       EATOM= -276.8230
 kinetic energy error for atom=    0.0009 (will be added to EATOM!!)


 POSCAR: POSCAR file written by OVITO Basic 3.12.
  positions in cartesian coordinates
  No initial velocities read in
 IVDW         = 12
 VDW_S6       =    1.0000
 VDW_S8       =    0.7875
 VDW_A1       =    0.4289
 VDW_A2       =    4.4407
 VDW_RADIUS   =   50.2022 A
 VDW_CNRADIUS =   21.1671 A


 exchange-correlation table for PE
   RHO(1)=    0.500       N(1)  =     2000
   RHO(2)=  100.500       N(2)  =     4000



--------------------------------------------------------------------------------------------------------


 ion  position               nearest neighbor table
   1  0.643  0.205  0.664- 178 1.08 184 1.11 188 1.14 534 1.40
   2  0.682  0.111  0.595- 185 1.08 179 1.10 534 1.44   7 1.50
   3  0.598  0.907  0.710- 180 1.12 186 1.14 535 1.49   8 1.51
   4  0.500  0.903  0.619- 187 1.08 181 1.10 535 1.42   9 1.51
   5  0.389  0.898  0.847- 189 1.12 182 1.18 536 1.43  10 1.54
   6  0.459  0.871  0.944- 190 1.03 195 1.10 183 1.13 536 1.47
   7  0.698  0.034  0.604- 191 1.11 196 1.12 532 1.41   2 1.50
   8  0.660  0.945  0.678- 197 1.09 192 1.09 532 1.41   3 1.51
   9  0.430  0.884  0.651- 193 1.10 198 1.15 533 1.51   4 1.51
  10  0.375  0.882  0.768- 194 1.09 199 1.13 533 1.39   5 1.54
  11  0.636  0.601  0.525- 200 1.09 206 1.14 210 1.18 539 1.43
  12  0.585  0.577  0.636- 207 1.06 201 1.10 539 1.45  17 1.54
  13  0.442  0.661  0.801- 202 1.08 208 1.12 540 1.43  18 1.47
  14  0.326  0.625  0.784- 209 1.05 203 1.13 540 1.40  19 1.58
  15  0.145  0.791  0.722- 204 1.10 211 1.18 541 1.42  20 1.49
  16  0.143  0.901  0.667- 205 1.09 212 1.12 217 1.13 541 1.40
  17  0.572  0.610  0.710- 218 1.11 213 1.11 537 1.45  12 1.54
  18  0.496  0.704  0.764- 214 1.13 219 1.15  13 1.47 537 1.49
  19  0.287  0.692  0.814- 215 1.05 220 1.12 538 1.42  14 1.58
  20  0.193  0.771  0.781- 221 1.06 216 1.13 538 1.40  15 1.49
  21  0.552  0.038  0.849- 232 1.04 222 1.09 228 1.11 544 1.40
  22  0.496  0.101  0.759- 223 1.07 229 1.08 544 1.39  27 1.58
  23  0.651  0.221  0.909- 230 1.11 224 1.12 545 1.41  28 1.51
  24  0.721  0.242  0.011- 231 1.05 225 1.20 545 1.43  29 1.49
  25  0.667  0.251  0.246- 226 1.12 233 1.13 546 1.46  30 1.47
  26  0.559  0.281  0.297- 227 1.06 234 1.06 239 1.10 546 1.43
  27  0.498  0.176  0.796- 240 1.10 235 1.11 542 1.41  22 1.58
  28  0.575  0.230  0.883- 241 1.09 236 1.18 542 1.48  23 1.51
  29  0.716  0.265  0.087- 237 1.06 242 1.14 543 1.46  24 1.49
  30  0.705  0.199  0.202- 238 1.09 243 1.10 543 1.43  25 1.47
  31  0.223  0.606  0.569- 244 1.03 250 1.09 254 1.16 549 1.44
  32  0.098  0.610  0.536- 251 1.08 245 1.13 549 1.45  37 1.51
  33  0.128  0.789  0.485- 252 1.06 246 1.17 550 1.38  38 1.54
  34  0.150  0.821  0.364- 253 1.10 247 1.11 550 1.43  39 1.47
  35  0.936  0.767  0.280- 255 1.08 248 1.18 551 1.45  40 1.48
  36  0.886  0.821  0.182- 256 1.08 249 1.12 261 1.14 551 1.42
  37  0.032  0.652  0.549- 262 1.07 257 1.09 547 1.47  32 1.51
  38  0.064  0.776  0.535- 263 1.11 258 1.12 547 1.41  33 1.54
  39  0.104  0.817  0.301- 259 1.06 264 1.12 548 1.45  34 1.47
  40  0.990  0.769  0.337- 265 1.10 260 1.11  35 1.48 548 1.53
  41  0.520  0.292  0.514- 276 1.07 272 1.08 266 1.13 554 1.46
  42  0.480  0.181  0.549- 273 1.04 267 1.09 554 1.39  47 1.52
  43  0.403  0.978  0.438- 268 1.08 274 1.10 555 1.44  48 1.56
  44  0.295  0.967  0.510- 269 1.11 275 1.12 555 1.45  49 1.46
  45  0.268  0.121  0.719- 270 1.10 277 1.11 556 1.39  50 1.52
  46  0.308  0.080  0.830- 278 1.11 283 1.12 271 1.20 556 1.40
  47  0.482  0.102  0.530- 284 1.08 279 1.09 552 1.39  42 1.52
  48  0.477  0.014  0.442- 285 1.06 280 1.13 552 1.42  43 1.56
  49  0.263  0.033  0.536- 281 1.13 286 1.15  44 1.46 553 1.48
  50  0.242  0.103  0.645- 287 1.09 282 1.11 553 1.48  45 1.52
  51  0.659  0.799  0.929- 298 1.10 294 1.12 288 1.13 559 1.39
  52  0.638  0.682  0.962- 295 1.15 289 1.15 559 1.38  57 1.52
  53  0.459  0.643  0.087- 290 1.09 296 1.12 560 1.45  58 1.51
  54  0.385  0.733  0.043- 291 1.06 297 1.10 560 1.41  59 1.53
  55  0.251  0.846  0.165- 299 1.05 292 1.05 561 1.45  60 1.55
  56  0.321  0.892  0.270- 300 1.04 305 1.11 293 1.13 561 1.42
  57  0.583  0.624  0.956- 301 1.13 306 1.13 557 1.44  52 1.52
  58  0.487  0.594  0.030- 307 1.06 302 1.16 557 1.41  53 1.51
  59  0.307  0.755  0.038- 308 1.12 303 1.14 558 1.47  54 1.53
  60  0.309  0.861  0.109- 309 1.13 304 1.13 558 1.44  55 1.55
  61  0.173  0.031  0.119- 320 1.08 316 1.11 310 1.13 564 1.45
  62  0.074  0.012  0.198- 311 1.11 317 1.17 564 1.40  67 1.49
  63  0.971  0.102  0.044- 312 1.07 318 1.13 565 1.44  68 1.53
  64  0.942  0.187  0.132- 313 1.10 319 1.12 565 1.49  69 1.52
  65  0.929  0.236  0.360- 314 1.08 321 1.11 566 1.43  70 1.53
  66  0.864  0.342  0.362- 315 1.08 327 1.10 322 1.15 566 1.44
  67  0.020  0.971  0.157- 328 1.09 323 1.11 562 1.40  62 1.49
  68  0.949  0.027  0.065- 324 1.13 329 1.13 562 1.41  63 1.53
  69  0.967  0.219  0.201- 330 1.07 325 1.08 563 1.50  64 1.52
  70  0.984  0.188  0.325- 326 1.06 331 1.10 563 1.38  65 1.53
  71  0.906  0.888  0.867- 332 1.10 338 1.13 342 1.13 569 1.45
  72  0.822  0.867  0.955- 339 1.04 333 1.14 569 1.45  77 1.52
  73  0.652  0.927  0.101- 334 1.05 340 1.12 570 1.43  78 1.54
  74  0.625  0.044  0.046- 341 1.08 335 1.10 570 1.41  79 1.51
  75  0.406  0.055  0.127- 336 1.06 343 1.14 571 1.46  80 1.54
  76  0.341  0.159  0.088- 344 1.10 349 1.12 337 1.12 571 1.44
  77  0.793  0.901  0.022- 350 1.05 345 1.13  72 1.52 567 1.53
  78  0.716  0.883  0.123- 346 1.08 351 1.08 567 1.44  73 1.54
  79  0.580  0.080  0.102- 347 1.09 352 1.15 568 1.42  74 1.51
  80  0.475  0.061  0.171- 353 1.09 348 1.16 568 1.42  75 1.54
  81  0.154  0.245  0.926- 362 1.02 354 1.10 575 1.38  86 1.57
  82  0.140  0.321  0.828- 364 1.11 355 1.15 575 1.42  87 1.57
  83  0.167  0.535  0.780- 366 1.10 356 1.14 576 1.44  88 1.51
  84  0.069  0.606  0.807- 369 1.09 357 1.10 576 1.39  89 1.58
  85  0.118  0.052  0.929- 359 1.06 358 1.09 370 1.17 572 1.38
  86  0.123  0.174  0.898- 371 1.10 360 1.12 572 1.42  81 1.57
  87  0.178  0.342  0.758- 372 1.09 361 1.17 573 1.43  82 1.57
  88  0.200  0.463  0.793- 363 1.06 373 1.13 573 1.43  83 1.51
  89  0.057  0.620  0.889- 374 1.11 365 1.14 574 1.49  84 1.58
  90  0.937  0.568  0.909- 368 1.08 375 1.08 367 1.15 574 1.47
  91  0.090  0.336  0.099- 384 1.12 376 1.16 580 1.43  96 1.53
  92  0.034  0.403  0.006- 377 1.08 386 1.10  97 1.46 580 1.48
  93  0.829  0.454  0.132- 388 1.03 378 1.07 581 1.44  98 1.53
  94  0.826  0.579  0.137- 379 1.07 391 1.09 581 1.42  99 1.51
  95  0.270  0.326  0.178- 380 1.11 392 1.12 381 1.15 577 1.42
  96  0.150  0.335  0.154- 393 1.08 382 1.13 577 1.44  91 1.53
  97  0.970  0.433  0.038- 383 1.11 394 1.12  92 1.46 578 1.47
  98  0.903  0.423  0.148- 395 1.10 385 1.15 578 1.47  93 1.53
  99  0.789  0.635  0.095- 387 1.11 396 1.12 579 1.39  94 1.51
 100  0.682  0.663  0.150- 390 1.09 389 1.13 397 1.19 579 1.45
 101  0.208  0.397  0.532- 398 1.08 406 1.09 585 1.44 106 1.48
 102  0.309  0.337  0.587- 399 1.07 408 1.14 585 1.45 107 1.56
 103  0.497  0.391  0.722- 400 1.10 410 1.11 586 1.44 108 1.53
 104  0.591  0.418  0.799- 413 1.13 401 1.16 586 1.37 109 1.60
 105  0.039  0.308  0.538- 402 1.06 403 1.09 414 1.15 582 1.41
 106  0.142  0.373  0.566- 404 1.11 415 1.13 582 1.42 101 1.48
 107  0.373  0.388  0.576- 405 1.10 416 1.13 583 1.46 102 1.56
 108  0.462  0.419  0.655- 417 1.08 407 1.15 583 1.38 103 1.53
 109  0.653  0.474  0.816- 409 1.13 418 1.14 584 1.46 104 1.60
 110  0.740  0.515  0.898- 411 1.09 412 1.10 419 1.14 584 1.50
 111  0.888  0.213  0.903- 420 1.11 428 1.12 590 1.45 116 1.52
 112  0.870  0.338  0.886- 421 1.09 430 1.14 590 1.46 117 1.57
 113  0.763  0.380  0.676- 422 1.07 432 1.11 591 1.47 118 1.48
 114  0.812  0.476  0.603- 435 1.09 423 1.13 591 1.41 119 1.56
 115  0.787  0.048  0.892- 425 1.09 424 1.09 436 1.12 587 1.42
 116  0.871  0.138  0.882- 426 1.11 437 1.13 587 1.39 111 1.52
 117  0.899  0.376  0.818- 438 1.04 427 1.12 588 1.43 112 1.57
 118  0.809  0.348  0.731- 429 1.12 439 1.16 588 1.46 113 1.48
 119  0.883  0.495  0.567- 431 1.08 440 1.12 589 1.40 114 1.56
 120  0.952  0.498  0.679- 434 1.09 441 1.09 433 1.14 589 1.48
 121  0.322  0.408  0.999- 450 1.09 442 1.13 595 1.45 126 1.58
 122  0.283  0.527  0.027- 452 1.07 443 1.12 595 1.40 127 1.61
 123  0.094  0.667  0.078- 454 1.11 444 1.16 596 1.42 128 1.52
 124  0.073  0.790  0.082- 445 1.07 457 1.10 596 1.42 129 1.49
 125  0.347  0.277  0.915- 447 1.06 458 1.07 446 1.15 592 1.46
 126  0.354  0.400  0.923- 448 1.10 459 1.13 592 1.46 121 1.58
 127  0.242  0.535  0.102- 449 1.07 460 1.09 593 1.42 122 1.61
 128  0.143  0.605  0.064- 451 1.11 461 1.17 593 1.38 123 1.52
 129  0.026  0.804  0.019- 462 1.12 453 1.18 594 1.42 124 1.49
 130  0.114  0.856  0.952- 463 1.11 455 1.11 456 1.16 594 1.41
 131  0.763  0.065  0.406- 472 1.05 464 1.06 600 1.46 136 1.50
 132  0.864  0.995  0.367- 465 1.10 474 1.12 600 1.43 137 1.59
 133  0.034  0.995  0.509- 466 1.07 476 1.09 601 1.39 138 1.56
 134  0.958  0.082  0.545- 479 1.07 467 1.12 601 1.41 139 1.49
 135  0.634  0.943  0.329- 468 1.08 469 1.09 480 1.09 597 1.41
 136  0.699  0.044  0.363- 470 1.09 481 1.10 597 1.38 131 1.50
 137  0.943  0.004  0.340- 471 1.10 482 1.12 598 1.39 132 1.59
 138  0.017  0.968  0.432- 473 1.06 483 1.07 598 1.41 133 1.56
 139  0.933  0.107  0.616- 484 1.10 475 1.12 599 1.45 134 1.49
 140  0.998  0.050  0.708- 477 1.09 485 1.10 478 1.12 599 1.40
 141  0.409  0.527  0.300- 486 1.13 494 1.13 605 1.45 146 1.52
 142  0.407  0.406  0.338- 496 1.10 487 1.16 605 1.36 147 1.51
 143  0.367  0.194  0.315- 488 1.10 498 1.11 606 1.42 148 1.46
 144  0.271  0.107  0.300- 501 1.06 489 1.08 606 1.43 149 1.58
 145  0.277  0.666  0.257- 490 1.11 502 1.12 491 1.13 602 1.41
 146  0.369  0.597  0.304- 492 1.13 503 1.14 602 1.35 141 1.52
 147  0.355  0.350  0.361- 504 1.06 493 1.15 603 1.43 142 1.51
 148  0.357  0.226  0.385- 505 1.06 495 1.07 603 1.42 143 1.46
 149  0.214  0.104  0.361- 497 1.14 506 1.14 604 1.42 144 1.58
 150  0.153  0.171  0.443- 499 1.08 507 1.09 500 1.11 604 1.40
 151  0.973  0.537  0.362- 508 1.12 516 1.12 610 1.45 156 1.52
 152  0.856  0.591  0.379- 518 1.05 509 1.15 610 1.43 157 1.56
 153  0.665  0.449  0.322- 510 1.07 520 1.14 611 1.38 158 1.51
 154  0.614  0.500  0.222- 511 1.08 523 1.10 611 1.44 159 1.55
 155  0.105  0.575  0.268- 513 1.07 512 1.09 524 1.13 607 1.52
 156  0.015  0.493  0.310- 525 1.08 514 1.12 607 1.46 151 1.52
 157  0.786  0.607  0.338- 515 1.11 526 1.13 608 1.39 152 1.56
 158  0.714  0.503  0.356- 517 1.08 527 1.09 608 1.46 153 1.51
 159  0.608  0.442  0.164- 528 1.09 519 1.12 609 1.42 154 1.55
 160  0.528  0.374  0.099- 521 1.10 529 1.11 522 1.16 609 1.44
 161  0.590  0.697  0.328- 168 1.34 166 1.35 174 1.38 620 1.94
 162  0.797  0.676  0.743- 167 1.32 169 1.33 175 1.34 621 1.91
 163  0.373  0.771  0.498- 176 1.33 172 1.33 170 1.38 622 1.94
 164  0.821  0.838  0.517- 171 1.35 177 1.36 173 1.39 623 1.90
 165  0.585  0.750  0.615- 619 2.37 618 2.42 613 2.42 537 2.42 535 2.44 539 2.50
 166  0.572  0.642  0.287- 161 1.35
 167  0.755  0.648  0.791- 162 1.32
 168  0.640  0.736  0.296- 161 1.34
 169  0.804  0.633  0.688- 162 1.33
 170  0.316  0.775  0.453- 163 1.38
 171  0.805  0.829  0.448- 164 1.35
 172  0.401  0.836  0.503- 163 1.33
 173  0.893  0.826  0.524- 164 1.39
 174  0.615  0.676  0.393- 161 1.38
 175  0.858  0.697  0.773- 162 1.34
 176  0.350  0.753  0.562- 163 1.33
 177  0.805  0.904  0.540- 164 1.36
 178  0.694  0.231  0.657-   1 1.08
 179  0.638  0.118  0.556-   2 1.10
 180  0.624  0.867  0.745-   3 1.12
 181  0.509  0.960  0.627-   4 1.10
 182  0.422  0.951  0.844-   5 1.18
 183  0.500  0.912  0.927-   6 1.13
 184  0.616  0.215  0.715-   1 1.11
 185  0.734  0.130  0.579-   2 1.08
 186  0.567  0.942  0.749-   3 1.14
 187  0.503  0.894  0.562-   4 1.08
 188  0.606  0.221  0.619-   1 1.14
 189  0.338  0.907  0.874-   5 1.12
 190  0.420  0.898  0.972-   6 1.03
 191  0.743  0.032  0.642-   7 1.11
 192  0.695  0.967  0.718-   8 1.09
 193  0.411  0.830  0.641-   9 1.10
 194  0.349  0.831  0.764-  10 1.09
 195  0.488  0.834  0.978-   6 1.10
 196  0.713  0.008  0.552-   7 1.12
 197  0.690  0.904  0.650-   8 1.09
 198  0.387  0.924  0.632-   9 1.15
 199  0.330  0.914  0.744-  10 1.13
 200  0.669  0.554  0.520-  11 1.09
 201  0.531  0.576  0.612-  12 1.10
 202  0.460  0.613  0.825-  13 1.08
 203  0.290  0.601  0.743-  14 1.13
 204  0.127  0.744  0.694-  15 1.10
 205  0.152  0.937  0.711-  16 1.09
 206  0.656  0.644  0.489-  11 1.14
 207  0.607  0.526  0.636-  12 1.06
 208  0.421  0.698  0.843-  13 1.12
 209  0.330  0.587  0.824-  14 1.05
 210  0.577  0.593  0.504-  11 1.18
 211  0.092  0.818  0.743-  15 1.18
 212  0.165  0.930  0.620-  16 1.12
 213  0.625  0.625  0.731-  17 1.11
 214  0.478  0.759  0.748-  18 1.13
 215  0.324  0.731  0.828-  19 1.05
 216  0.229  0.818  0.794-  20 1.13
 217  0.085  0.899  0.653-  16 1.13
 218  0.548  0.569  0.743-  17 1.11
 219  0.539  0.720  0.805-  18 1.15
 220  0.257  0.682  0.864-  19 1.12
 221  0.164  0.755  0.826-  20 1.06
 222  0.551  0.982  0.863-  21 1.09
 223  0.542  0.093  0.726-  22 1.07
 224  0.666  0.167  0.893-  23 1.12
 225  0.754  0.187  0.008-  24 1.20
 226  0.694  0.246  0.299-  25 1.12
 227  0.503  0.277  0.289-  26 1.06
 228  0.550  0.067  0.900-  21 1.11
 229  0.449  0.102  0.726-  22 1.08
 230  0.688  0.257  0.881-  23 1.11
 231  0.754  0.276  0.983-  24 1.05
 232  0.594  0.045  0.815-  21 1.04
 233  0.669  0.307  0.227-  25 1.13
 234  0.578  0.270  0.348-  26 1.06
 235  0.462  0.178  0.843-  27 1.11
 236  0.539  0.211  0.930-  28 1.18
 237  0.683  0.310  0.084-  29 1.06
 238  0.762  0.201  0.213-  30 1.09
 239  0.577  0.335  0.287-  26 1.10
 240  0.479  0.214  0.756-  27 1.10
 241  0.558  0.284  0.872-  28 1.09
 242  0.767  0.287  0.110-  29 1.14
 243  0.685  0.147  0.220-  30 1.10
 244  0.262  0.639  0.589-  31 1.03
 245  0.105  0.590  0.480-  32 1.13
 246  0.174  0.813  0.519-  33 1.17
 247  0.186  0.864  0.350-  34 1.11
 248  0.946  0.710  0.257-  35 1.18
 249  0.833  0.807  0.205-  36 1.12
 250  0.243  0.585  0.519-  31 1.09
 251  0.098  0.560  0.565-  32 1.08
 252  0.140  0.737  0.467-  33 1.06
 253  0.183  0.773  0.371-  34 1.10
 254  0.214  0.559  0.606-  31 1.16
 255  0.881  0.770  0.294-  35 1.08
 256  0.892  0.869  0.152-  36 1.08
 257  0.012  0.663  0.603-  37 1.09
 258  0.094  0.765  0.585-  38 1.12
 259  0.141  0.816  0.258-  39 1.06
 260  0.997  0.821  0.365-  40 1.11
 261  0.900  0.781  0.138-  36 1.14
 262  0.992  0.623  0.521-  37 1.07
 263  0.030  0.824  0.542-  38 1.11
 264  0.070  0.865  0.293-  39 1.12
 265  0.990  0.726  0.376-  40 1.10
 266  0.500  0.311  0.567-  41 1.13
 267  0.488  0.179  0.606-  42 1.09
 268  0.370  0.014  0.407-  43 1.08
 269  0.275  0.957  0.455-  44 1.11
 270  0.321  0.145  0.709-  45 1.10
 271  0.318  0.142  0.841-  46 1.20
 272  0.478  0.304  0.477-  41 1.08
 273  0.431  0.201  0.534-  42 1.04
 274  0.411  0.925  0.414-  43 1.10
 275  0.275  0.924  0.545-  44 1.12
 276  0.569  0.317  0.499-  41 1.07
 277  0.237  0.167  0.735-  45 1.11
 278  0.281  0.057  0.877-  46 1.11
 279  0.443  0.075  0.564-  47 1.09
 280  0.508  0.989  0.487-  48 1.13
 281  0.205  0.017  0.531-  49 1.13
 282  0.187  0.083  0.645-  50 1.11
 283  0.360  0.052  0.831-  46 1.12
 284  0.534  0.083  0.543-  47 1.08
 285  0.501  0.006  0.392-  48 1.06
 286  0.266  0.083  0.502-  49 1.15
 287  0.245  0.154  0.617-  50 1.09
 288  0.718  0.790  0.925-  51 1.13
 289  0.694  0.659  0.956-  52 1.15
 290  0.451  0.614  0.136-  53 1.09
 291  0.414  0.769  0.075-  54 1.06
 292  0.213  0.886  0.162-  55 1.05
 293  0.317  0.872  0.326-  56 1.13
 294  0.651  0.817  0.985-  51 1.12
 295  0.638  0.700  0.020-  52 1.15
 296  0.495  0.689  0.100-  53 1.12
 297  0.413  0.728  0.992-  54 1.10
 298  0.642  0.841  0.892-  51 1.10
 299  0.235  0.795  0.149-  55 1.05
 300  0.371  0.890  0.246-  56 1.04
 301  0.606  0.574  0.979-  57 1.13
 302  0.529  0.555  0.053-  58 1.16
 303  0.273  0.726  0.077-  59 1.14
 304  0.316  0.920  0.100-  60 1.13
 305  0.299  0.947  0.270-  56 1.11
 306  0.578  0.610  0.898-  57 1.13
 307  0.444  0.564  0.010-  58 1.06
 308  0.282  0.739  0.987-  59 1.12
 309  0.362  0.841  0.126-  60 1.13
 310  0.232  0.019  0.117-  61 1.13
 311  0.070  0.003  0.256-  62 1.11
 312  0.012  0.095  0.005-  63 1.07
 313  0.929  0.225  0.090-  64 1.10
 314  0.882  0.203  0.362-  65 1.08
 315  0.860  0.393  0.337-  66 1.08
 316  0.159  0.086  0.109-  61 1.11
 317  0.060  0.073  0.197-  62 1.17
 318  0.923  0.132  0.025-  63 1.13
 319  0.897  0.150  0.142-  64 1.12
 320  0.148  0.999  0.078-  61 1.08
 321  0.954  0.251  0.411-  65 1.11
 322  0.809  0.318  0.358-  66 1.15
 323  0.969  0.984  0.185-  67 1.11
 324  0.914  0.034  0.113-  68 1.13
 325  0.932  0.263  0.214-  69 1.08
 326  0.032  0.219  0.325-  70 1.06
 327  0.885  0.349  0.416-  66 1.10
 328  0.030  0.915  0.163-  67 1.09
 329  0.917  0.002  0.021-  68 1.13
 330  0.020  0.239  0.201-  69 1.07
 331  1.000  0.146  0.363-  70 1.10
 332  0.959  0.908  0.854-  71 1.10
 333  0.785  0.874  0.908-  72 1.14
 334  0.618  0.900  0.067-  73 1.05
 335  0.655  0.086  0.020-  74 1.10
 336  0.406  0.005  0.100-  75 1.06
 337  0.334  0.179  0.143-  76 1.12
 338  0.860  0.913  0.837-  71 1.13
 339  0.827  0.813  0.967-  72 1.04
 340  0.622  0.937  0.152-  73 1.12
 341  0.587  0.025  0.008-  74 1.08
 342  0.902  0.829  0.856-  71 1.13
 343  0.362  0.056  0.168-  75 1.14
 344  0.352  0.204  0.053-  76 1.10
 345  0.759  0.951  0.020-  77 1.13
 346  0.751  0.916  0.154-  78 1.08
 347  0.553  0.124  0.077-  79 1.09
 348  0.484  0.119  0.189-  80 1.16
 349  0.288  0.137  0.074-  76 1.12
 350  0.839  0.915  0.049-  77 1.05
 351  0.698  0.841  0.157-  78 1.08
 352  0.616  0.105  0.144-  79 1.15
 353  0.473  0.029  0.219-  80 1.09
 354  0.199  0.231  0.960-  81 1.10
 355  0.117  0.372  0.852-  82 1.15
 356  0.173  0.553  0.723-  83 1.14
 357  0.014  0.608  0.788-  84 1.10
 358  0.169  0.026  0.921-  85 1.09
 359  0.086  0.043  0.884-  85 1.06
 360  0.159  0.148  0.858-  86 1.12
 361  0.235  0.320  0.763-  87 1.17
 362  0.118  0.273  0.955-  81 1.02
 363  0.198  0.446  0.846-  88 1.06
 364  0.092  0.289  0.817-  82 1.11
 365  0.111  0.613  0.914-  89 1.14
 366  0.198  0.572  0.813-  83 1.10
 367  0.915  0.625  0.914-  90 1.15
 368  0.921  0.553  0.856-  90 1.08
 369  0.103  0.649  0.789-  84 1.09
 370  0.087  0.020  0.971-  85 1.17
 371  0.072  0.177  0.870-  86 1.10
 372  0.151  0.317  0.713-  87 1.09
 373  0.259  0.470  0.785-  88 1.13
 374  0.035  0.673  0.902-  89 1.11
 375  0.910  0.541  0.951-  90 1.08
 376  0.037  0.331  0.131-  91 1.16
 377  0.026  0.350  0.985-  92 1.08
 378  0.795  0.465  0.176-  93 1.07
 379  0.879  0.595  0.150-  94 1.07
 380  0.293  0.276  0.198-  95 1.11
 381  0.251  0.357  0.226-  95 1.15
 382  0.127  0.293  0.191-  96 1.13
 383  0.989  0.478  0.070-  97 1.11
 384  0.099  0.286  0.067-  91 1.12
 385  0.890  0.378  0.187-  98 1.15
 386  0.054  0.438  0.964-  92 1.10
 387  0.798  0.690  0.116-  99 1.11
 388  0.807  0.418  0.096-  93 1.03
 389  0.623  0.656  0.151- 100 1.13
 390  0.703  0.644  0.200- 100 1.09
 391  0.801  0.559  0.185-  94 1.09
 392  0.309  0.361  0.149-  95 1.12
 393  0.158  0.385  0.179-  96 1.08
 394  0.936  0.456  0.995-  97 1.12
 395  0.944  0.456  0.172-  98 1.10
 396  0.808  0.630  0.038-  99 1.12
 397  0.698  0.723  0.141- 100 1.19
 398  0.231  0.442  0.560- 101 1.08
 399  0.330  0.284  0.592- 102 1.07
 400  0.521  0.340  0.708- 103 1.10
 401  0.620  0.365  0.785- 104 1.16
 402  0.998  0.344  0.553- 105 1.06
 403  0.049  0.268  0.577- 105 1.09
 404  0.123  0.416  0.603- 106 1.11
 405  0.395  0.381  0.522- 107 1.10
 406  0.197  0.414  0.477- 101 1.09
 407  0.498  0.436  0.609- 108 1.15
 408  0.286  0.350  0.642- 102 1.14
 409  0.703  0.470  0.783- 109 1.13
 410  0.458  0.381  0.765- 103 1.11
 411  0.719  0.569  0.894- 110 1.09
 412  0.759  0.508  0.953- 110 1.10
 413  0.559  0.411  0.849- 104 1.13
 414  0.020  0.278  0.488- 105 1.15
 415  0.156  0.331  0.606- 106 1.13
 416  0.359  0.445  0.584- 107 1.13
 417  0.431  0.465  0.668- 108 1.08
 418  0.629  0.529  0.813- 109 1.14
 419  0.784  0.498  0.861- 110 1.14
 420  0.942  0.227  0.886- 111 1.11
 421  0.908  0.335  0.929- 112 1.09
 422  0.729  0.424  0.689- 113 1.07
 423  0.804  0.511  0.651- 114 1.13
 424  0.834  0.014  0.889- 115 1.09
 425  0.767  0.056  0.839- 115 1.09
 426  0.919  0.106  0.896- 116 1.11
 427  0.934  0.423  0.829- 117 1.12
 428  0.890  0.221  0.962- 111 1.12
 429  0.850  0.314  0.705- 118 1.12
 430  0.822  0.369  0.904- 112 1.14
 431  0.883  0.467  0.517- 119 1.08
 432  0.728  0.338  0.654- 113 1.11
 433  0.901  0.493  0.711- 120 1.14
 434  0.993  0.462  0.698- 120 1.09
 435  0.770  0.483  0.564- 114 1.09
 436  0.748  0.025  0.930- 115 1.12
 437  0.863  0.131  0.823- 116 1.13
 438  0.926  0.337  0.790- 117 1.04
 439  0.770  0.312  0.761- 118 1.16
 440  0.880  0.553  0.557- 119 1.12
 441  0.972  0.553  0.682- 120 1.09
 442  0.356  0.366  0.024- 121 1.13
 443  0.242  0.511  0.987- 122 1.12
 444  0.071  0.661  0.135- 123 1.16
 445  0.097  0.838  0.101- 124 1.07
 446  0.309  0.285  0.963- 125 1.15
 447  0.376  0.230  0.927- 125 1.06
 448  0.389  0.446  0.915- 126 1.10
 449  0.205  0.493  0.110- 127 1.07
 450  0.266  0.393  0.004- 121 1.09
 451  0.159  0.609  0.007- 128 1.11
 452  0.303  0.577  0.008- 122 1.07
 453  0.977  0.765  0.019- 129 1.18
 454  0.051  0.658  0.039- 123 1.11
 455  0.096  0.911  0.964- 130 1.11
 456  0.156  0.847  0.996- 130 1.16
 457  0.034  0.779  0.124- 124 1.10
 458  0.312  0.270  0.871- 125 1.07
 459  0.315  0.407  0.878- 126 1.13
 460  0.278  0.536  0.146- 127 1.09
 461  0.108  0.554  0.070- 128 1.17
 462  0.998  0.855  0.029- 129 1.12
 463  0.141  0.852  0.900- 130 1.11
 464  0.764  0.035  0.454- 131 1.06
 465  0.840  0.952  0.335- 132 1.10
 466  0.071  0.038  0.505- 133 1.07
 467  0.916  0.093  0.504- 134 1.12
 468  0.636  0.948  0.272- 135 1.08
 469  0.585  0.963  0.351- 135 1.09
 470  0.704  0.065  0.310- 136 1.09
 471  0.957  0.953  0.315- 137 1.10
 472  0.761  0.118  0.425- 131 1.05
 473  0.976  0.931  0.439- 138 1.06
 474  0.864  0.974  0.422- 132 1.12
 475  0.904  0.159  0.612- 139 1.12
 476  0.063  0.954  0.537- 133 1.09
 477  0.033  0.018  0.674- 140 1.09
 478  0.023  0.057  0.761- 140 1.12
 479  0.006  0.105  0.527- 134 1.07
 480  0.625  0.887  0.337- 135 1.09
 481  0.652  0.069  0.388- 136 1.10
 482  0.941  0.047  0.299- 137 1.12
 483  0.069  0.954  0.415- 138 1.07
 484  0.892  0.068  0.630- 139 1.10
 485  0.950  0.019  0.720- 140 1.10
 486  0.458  0.533  0.333- 141 1.13
 487  0.452  0.406  0.380- 142 1.16
 488  0.422  0.188  0.294- 143 1.10
 489  0.267  0.055  0.275- 144 1.08
 490  0.230  0.661  0.222- 145 1.11
 491  0.313  0.709  0.238- 145 1.13
 492  0.413  0.636  0.294- 146 1.13
 493  0.320  0.375  0.405- 147 1.15
 494  0.429  0.516  0.245- 141 1.13
 495  0.376  0.195  0.428- 148 1.07
 496  0.435  0.398  0.287- 142 1.10
 497  0.161  0.093  0.336- 149 1.14
 498  0.339  0.223  0.272- 143 1.11
 499  0.154  0.124  0.475- 150 1.08
 500  0.160  0.220  0.476- 150 1.11
 501  0.257  0.147  0.264- 144 1.06
 502  0.254  0.673  0.312- 145 1.12
 503  0.360  0.605  0.364- 146 1.14
 504  0.319  0.331  0.322- 147 1.06
 505  0.302  0.237  0.392- 148 1.06
 506  0.224  0.059  0.400- 149 1.14
 507  0.100  0.175  0.420- 150 1.09
 508  0.003  0.584  0.384- 151 1.12
 509  0.877  0.646  0.395- 152 1.15
 510  0.650  0.414  0.364- 153 1.07
 511  0.661  0.532  0.215- 154 1.08
 512  0.093  0.618  0.304- 155 1.09
 513  0.120  0.593  0.216- 155 1.07
 514  0.989  0.444  0.288- 156 1.12
 515  0.752  0.634  0.378- 157 1.11
 516  0.965  0.505  0.412- 151 1.12
 517  0.745  0.471  0.392- 158 1.08
 518  0.849  0.564  0.426- 152 1.05
 519  0.639  0.452  0.115- 159 1.12
 520  0.693  0.416  0.280- 153 1.14
 521  0.471  0.376  0.086- 160 1.10
 522  0.556  0.377  0.044- 160 1.16
 523  0.566  0.532  0.217- 154 1.10
 524  0.142  0.539  0.297- 155 1.13
 525  0.061  0.473  0.338- 156 1.08
 526  0.807  0.645  0.296- 157 1.13
 527  0.678  0.538  0.384- 158 1.09
 528  0.625  0.392  0.186- 159 1.09
 529  0.542  0.325  0.128- 160 1.11
 530  0.453  0.704  0.390- 622 1.59 620 1.66
 531  0.798  0.781  0.644- 623 1.60 621 1.62
 532  0.638  0.001  0.634-   8 1.41   7 1.41
 533  0.439  0.890  0.730-  10 1.39   9 1.51
 534  0.658  0.133  0.664-   1 1.40   2 1.44
 535  0.556  0.869  0.656-   4 1.42   3 1.49 165 2.44
 536  0.426  0.841  0.880-   5 1.43   6 1.47
 537  0.529  0.673  0.700-  17 1.45  18 1.49 165 2.42
 538  0.240  0.717  0.761-  20 1.40  19 1.42
 539  0.629  0.626  0.597-  11 1.43  12 1.45 165 2.50
 540  0.389  0.643  0.749-  14 1.40  13 1.43
 541  0.176  0.834  0.669-  16 1.40  15 1.42
 542  0.568  0.187  0.819-  27 1.41  28 1.48
 543  0.689  0.205  0.128-  30 1.43  29 1.46
 544  0.491  0.046  0.808-  22 1.39  21 1.40
 545  0.651  0.238  0.982-  23 1.41  24 1.43
 546  0.592  0.232  0.249-  26 1.43  25 1.46
 547  0.021  0.719  0.512-  38 1.41  37 1.47
 548  0.057  0.756  0.295-  39 1.45  40 1.53
 549  0.161  0.649  0.558-  31 1.44  32 1.45
 550  0.112  0.833  0.428-  33 1.38  34 1.43
 551  0.945  0.823  0.228-  36 1.42  35 1.45
 552  0.472  0.088  0.458-  47 1.39  48 1.42
 553  0.287  0.050  0.608-  50 1.48  49 1.48
 554  0.537  0.216  0.517-  42 1.39  41 1.46
 555  0.372  0.967  0.506-  43 1.44  44 1.45
 556  0.270  0.066  0.768-  45 1.39  46 1.40
 557  0.511  0.638  0.976-  58 1.41  57 1.44
 558  0.293  0.832  0.040-  60 1.44  59 1.47
 559  0.623  0.737  0.915-  52 1.38  51 1.39
 560  0.386  0.667  0.077-  54 1.41  53 1.45
 561  0.278  0.841  0.236-  56 1.42  55 1.45
 562  0.007  0.986  0.085-  67 1.40  68 1.41
 563  0.967  0.164  0.258-  70 1.38  69 1.50
 564  0.146  0.003  0.186-  62 1.40  61 1.45
 565  0.999  0.141  0.104-  63 1.44  64 1.49
 566  0.912  0.299  0.321-  65 1.43  66 1.44
 567  0.750  0.848  0.064-  78 1.44  77 1.53
 568  0.533  0.031  0.133-  79 1.42  80 1.42
 569  0.890  0.900  0.941-  71 1.45  72 1.45
 570  0.674  0.993  0.071-  74 1.41  73 1.43
 571  0.401  0.112  0.076-  76 1.44  75 1.46
 572  0.117  0.122  0.951-  85 1.38  86 1.42
 573  0.175  0.416  0.739-  88 1.43  87 1.43
 574  0.014  0.562  0.921-  90 1.47  89 1.49
 575  0.187  0.282  0.872-  81 1.38  82 1.42
 576  0.092  0.537  0.796-  84 1.39  83 1.44
 577  0.216  0.306  0.129-  95 1.42  96 1.44
 578  0.932  0.385  0.086-  98 1.47  97 1.47
 579  0.716  0.623  0.094-  99 1.39 100 1.45
 580  0.096  0.397  0.054-  91 1.43  92 1.48
 581  0.829  0.519  0.092-  94 1.42  93 1.44
 582  0.098  0.346  0.512- 105 1.41 106 1.42
 583  0.414  0.365  0.638- 108 1.38 107 1.46
 584  0.679  0.466  0.889- 109 1.46 110 1.50
 585  0.260  0.341  0.528- 101 1.44 102 1.45
 586  0.551  0.441  0.744- 104 1.37 103 1.44
 587  0.812  0.114  0.919- 116 1.39 115 1.42
 588  0.840  0.402  0.778- 117 1.43 118 1.46
 589  0.945  0.477  0.604- 119 1.40 120 1.48
 590  0.842  0.267  0.873- 111 1.45 112 1.46
 591  0.811  0.403  0.619- 114 1.41 113 1.47
 592  0.397  0.336  0.912- 125 1.46 126 1.46
 593  0.204  0.600  0.104- 128 1.38 127 1.42
 594  0.059  0.806  0.951- 130 1.41 129 1.42
 595  0.337  0.477  0.030- 122 1.40 121 1.45
 596  0.123  0.736  0.071- 124 1.42 123 1.42
 597  0.695  0.971  0.363- 136 1.38 135 1.41
 598  0.990  0.026  0.393- 137 1.39 138 1.41
 599  0.984  0.114  0.673- 140 1.40 139 1.45
 600  0.832  0.064  0.372- 132 1.43 131 1.46
 601  0.975  0.009  0.550- 133 1.39 134 1.41
 602  0.310  0.599  0.263- 146 1.35 145 1.41
 603  0.395  0.291  0.387- 148 1.42 147 1.43
 604  0.211  0.170  0.397- 150 1.40 149 1.42
 605  0.371  0.468  0.333- 142 1.36 141 1.45
 606  0.344  0.122  0.317- 143 1.42 144 1.43
 607  0.040  0.530  0.247- 156 1.46 155 1.52
 608  0.755  0.547  0.308- 157 1.39 158 1.46
 609  0.537  0.438  0.140- 159 1.42 160 1.44
 610  0.906  0.559  0.331- 152 1.43 151 1.45
 611  0.603  0.474  0.293- 153 1.38 154 1.44
 612  0.534  0.818  0.382- 620 1.44
 613  0.678  0.740  0.703- 621 1.44 165 2.42
 614  0.765  0.812  0.770- 621 1.46
 615  0.478  0.764  0.275- 620 1.45
 616  0.782  0.702  0.535- 623 1.46
 617  0.408  0.640  0.495- 622 1.41
 618  0.510  0.721  0.515- 622 1.50 165 2.42
 619  0.689  0.797  0.562- 623 1.51 165 2.37
 620  0.508  0.757  0.346- 612 1.44 615 1.45 530 1.66 161 1.94
 621  0.751  0.761  0.713- 613 1.44 614 1.46 531 1.62 162 1.91 623 2.78
 622  0.445  0.702  0.473- 617 1.41 618 1.50 530 1.59 163 1.94
 623  0.765  0.770  0.566- 616 1.46 619 1.51 531 1.60 164 1.90 621 2.78


IMPORTANT INFORMATION: All symmetrisations will be switched off!
NOSYMM: (Re-)initialisation of all symmetry stuff for point group C_1.


----------------------------------------------------------------------------------------

                                     Primitive cell                                     

  volume of cell :    6713.4328

  direct lattice vectors                    reciprocal lattice vectors
    18.864626645  0.000000000  0.000000000     0.053009265  0.000000000  0.000000000
     0.000000000 18.864626645  0.000000000     0.000000000  0.053009265  0.000000000
     0.000000000  0.000000000 18.864626645     0.000000000  0.000000000  0.053009265

  length of vectors
    18.864626645 18.864626645 18.864626645     0.053009265  0.053009265  0.053009265

  position of ions in fractional coordinates (direct lattice)
     0.642859970  0.204950959  0.664047774
     0.682224651  0.111333416  0.594669247
     0.598268576  0.907455718  0.710255950
     0.500344560  0.903193773  0.618878579
     0.389136422  0.897590694  0.846744207
     0.459119255  0.871398816  0.943904889
     0.698461389  0.033912324  0.603691424
     0.660374231  0.945479264  0.677517428
     0.429582492  0.884099836  0.651256638
     0.375433527  0.881804535  0.767749799
     0.635507585  0.600728206  0.525380836
     0.584623991  0.577165588  0.635597701
     0.441620896  0.660994440  0.800631447
     0.325718788  0.624969343  0.783737394
     0.144730313  0.791429038  0.722320859
     0.142832581  0.900909074  0.667000390
     0.572193319  0.610047235  0.709503219
     0.495541921  0.704472639  0.764442021
     0.286737894  0.692365323  0.813915569
     0.193165409  0.771433943  0.781092231
     0.551731742  0.037951099  0.849362864
     0.496040208  0.100860905  0.758717021
     0.650832564  0.221371109  0.909401158
     0.720963822  0.241774375  0.011278427
     0.667387357  0.250699015  0.246050633
     0.558675956  0.280899454  0.296775199
     0.497821319  0.175984576  0.795977233
     0.575479893  0.230305821  0.883495530
     0.715726506  0.264707244  0.086855857
     0.705188264  0.198766898  0.201544054
     0.223265660  0.606304781  0.568684105
     0.098323882  0.609798091  0.535876671
     0.127879198  0.788895195  0.485162707
     0.149968159  0.820684852  0.363778380
     0.936128430  0.767405239  0.280198141
     0.885933957  0.820684852  0.181506551
     0.031638226  0.651712517  0.549431140
     0.064071945  0.776247185  0.534668060
     0.104291665  0.816677351  0.300967702
     0.989598876  0.769435494  0.337279048
     0.520360859  0.291691610  0.514042154
     0.480338863  0.180798347  0.548742020
     0.402940035  0.977846722  0.437639900
     0.294913513  0.967239568  0.509780209
     0.268211686  0.120649794  0.719225118
     0.307603401  0.080333067  0.830173510
     0.481658794  0.102299047  0.529600374
     0.477269627  0.014043391  0.442082077
     0.262713035  0.032711664  0.535760050
     0.242108864  0.103396869  0.644731197
     0.659038398  0.799486447  0.929067596
     0.637871798  0.682420785  0.961588780
     0.458854208  0.643077308  0.086819811
     0.384847973  0.733224865  0.042569267
     0.250617911  0.845768836  0.164822945
     0.321365137  0.892199652  0.269850733
     0.582911792  0.623856149  0.956181835
     0.486912012  0.593534849  0.030188423
     0.307172436  0.755488756  0.038145643
     0.308808302  0.861136222  0.109214635
     0.173045742  0.030522381  0.119234977
     0.073552652  0.012367768  0.197775095
     0.971326582  0.102197799  0.044302670
     0.941683801  0.186881161  0.132029293
     0.928892665  0.235667708  0.359541880
     0.864486408  0.342040341  0.361812797
     0.019596641  0.971437902  0.157175829
     0.948670422  0.027302598  0.064747283
     0.967011628  0.219327072  0.201022972
     0.984488783  0.188092422  0.324585450
     0.905695811  0.887635554  0.866627982
     0.821660222  0.866691593  0.954867205
     0.651553490  0.927228174  0.101310954
     0.625001149  0.043842549  0.045929524
     0.406433346  0.054558372  0.127257929
     0.341002949  0.158730590  0.088106876
     0.792929200  0.901402060  0.021544732
     0.716299006  0.882870021  0.122891026
     0.580494569  0.079907933  0.101881334
     0.474990229  0.061331896  0.170799740
     0.154264560  0.245236410  0.926178591
     0.139922373  0.321007854  0.828238672
     0.166718556  0.535161046  0.780212278
     0.068941376  0.606172258  0.807151586
     0.118165780  0.052289046  0.928516299
     0.123011887  0.173806425  0.897553588
     0.177880187  0.342262979  0.757519011
     0.200002014  0.463365297  0.792531631
     0.056523426  0.619922861  0.888769952
     0.937013685  0.568249429  0.908929376
     0.090235198  0.335762983  0.098944620
     0.034078243  0.402775706  0.006063906
     0.829240547  0.453532078  0.131503441
     0.826309135  0.578819477  0.137039199
     0.270159247  0.325949908  0.177803324
     0.149611406  0.334621694  0.153986261
     0.970197485  0.432773650  0.037856743
     0.902663681  0.422696588  0.147713145
     0.788964107  0.635200131  0.094627546
     0.682494998  0.662796755  0.149933173
     0.208496219  0.397458877  0.531662434
     0.308907429  0.337202185  0.586982904
     0.497460856  0.391134872  0.721976299
     0.591467487  0.417984065  0.799078275
     0.038793417  0.308350832  0.537737296
     0.142249480  0.373281351  0.566452415
     0.373313157  0.387662765  0.576147810
     0.461812125  0.418556565  0.654628027
     0.653461823  0.473527173  0.816401703
     0.740057759  0.515356784  0.898454745
     0.887831688  0.213455235  0.903299792
     0.870179603  0.338050863  0.886039975
     0.763132692  0.380289176  0.675980159
     0.811593763  0.475822474  0.603479387
     0.786912649  0.048217934  0.892199652
     0.870905830  0.137822676  0.881656109
     0.899112060  0.376154453  0.818055592
     0.809012212  0.348429547  0.731438453
     0.883166873  0.494900509  0.566600841
     0.951840376  0.498452129  0.679219025
     0.321627003  0.408140244  0.999178002
     0.282722443  0.527453499  0.027262841
     0.093776747  0.666963283  0.078484634
     0.072769175  0.790490774  0.081784461
     0.346527575  0.277099750  0.915306390
     0.353784543  0.399690567  0.922520952
     0.241678429  0.535404888  0.101611517
     0.143219019  0.605292304  0.063722614
     0.026413103  0.803546956  0.018950988
     0.114301405  0.855898907  0.952073617
     0.762814637  0.065224367  0.406226610
     0.863829093  0.995355682  0.366849737
     0.033999259  0.995217858  0.508592802
     0.957517669  0.082052158  0.545322922
     0.634049830  0.943332389  0.328977797
     0.699028588  0.044041334  0.363455554
     0.943348292  0.004006794  0.340057264
     0.017006609  0.968342160  0.432360177
     0.932714633  0.107480172  0.615878254
     0.997990243  0.049707494  0.708029561
     0.408707443  0.526923406  0.300398912
     0.406762003  0.406019873  0.337664426
     0.367250487  0.193535944  0.315022578
     0.271395953  0.106732212  0.299724104
     0.276994261  0.665616848  0.257229227
     0.368674846  0.596922141  0.304351813
     0.354713266  0.349587270  0.360802970
     0.356798650  0.226204494  0.384657139
     0.214436437  0.104424188  0.360822053
     0.153077682  0.171390263  0.442665179
     0.972869152  0.537408639  0.362368864
     0.856476708  0.591191839  0.378661792
     0.665044348  0.449370851  0.322037294
     0.613948717  0.499968194  0.221928236
     0.104534978  0.574504522  0.267668341
     0.015225497  0.493145902  0.309635777
     0.786096306  0.606760660  0.337984602
     0.714173335  0.502687570  0.355900143
     0.607783739  0.441949553  0.164380318
     0.528296346  0.374129499  0.099305614
     0.589659871  0.697475416  0.328258462
     0.796714062  0.676170993  0.743185306
     0.373450981  0.770898550  0.498430926
     0.820801472  0.838220317  0.517026576
     0.585466839  0.750198432  0.614542421
     0.571864661  0.641598350  0.287077154
     0.755080585  0.647869346  0.791497950
     0.640405641  0.735679194  0.295898426
     0.803647674  0.633074460  0.687573286
     0.315718590  0.775096884  0.453314740
     0.804511725  0.828609737  0.447860087
     0.400607627  0.835797793  0.502687570
     0.892931180  0.825651820  0.523790558
     0.614553022  0.675720414  0.393297650
     0.857563398  0.696934722  0.773225657
     0.349878821  0.752933710  0.562227577
     0.804623044  0.904497801  0.540361255
     0.693626944  0.230744737  0.657442819
     0.638332979  0.117618194  0.556491974
     0.624280223  0.867057357  0.744770283
     0.509165302  0.960358965  0.626851172
     0.422314922  0.950774890  0.843839299
     0.499560023  0.912311367  0.926576160
     0.615888856  0.214645293  0.715376645
     0.734242643  0.129694235  0.578506722
     0.566791674  0.941874634  0.748507436
     0.503196459  0.894479050  0.562227577
     0.606230568  0.220750371  0.618528717
     0.337544625  0.907248982  0.874213608
     0.420417190  0.897845138  0.972312554
     0.742517389  0.031574085  0.642494206
     0.695466365  0.966635262  0.718334562
     0.410780105  0.829982677  0.641343905
     0.349223626  0.830608186  0.763736998
     0.487648841  0.834398349  0.978355611
     0.712848103  0.008218733  0.551911974
     0.690319165  0.904450093  0.650053327
     0.387487834  0.924323267  0.632470154
     0.330233587  0.913758520  0.744399218
     0.669157867  0.554154266  0.520493382
     0.531259564  0.575813851  0.612342536
     0.459887889  0.612708300  0.825058116
     0.289633260  0.600844826  0.742729426
     0.127099432  0.743577574  0.694088124
     0.152152671  0.936642620  0.711263126
     0.656366731  0.643639206  0.488650716
     0.606829573  0.525693591  0.635565895
     0.421164621  0.697517824  0.842906336
     0.330153013  0.587205542  0.824204667
     0.577170889  0.593094872  0.504468681
     0.092005708  0.817573208  0.743286023
     0.165467008  0.929921045  0.620299227
     0.624640686  0.625435825  0.731263522
     0.478340414  0.759194104  0.747553269
     0.324369172  0.731109795  0.828243973
     0.229273730  0.817530801  0.794201423
     0.084650142  0.898629676  0.653435319
     0.547512205  0.568848434  0.743354935
     0.538521833  0.719792317  0.805211447
     0.256988565  0.682494998  0.864237264
     0.163982218  0.754910955  0.826272028
     0.550645052  0.981864824  0.862684093
     0.541872019  0.093328819  0.725777063
     0.666470297  0.166808142  0.892713842
     0.753760654  0.187104860  0.008160953
     0.693711758  0.246158772  0.299339787
     0.503106343  0.276606764  0.288607001
     0.550401210  0.067390855  0.900002616
     0.449259531  0.102488290  0.726111021
     0.688124582  0.256832717  0.880749650
     0.754158224  0.276263264  0.982723574
     0.593773390  0.044860327  0.814784921
     0.668919325  0.307383943  0.226839545
     0.578183365  0.269622263  0.348446510
     0.461981755  0.178395437  0.842635989
     0.539057227  0.210666418  0.930085374
     0.682616919  0.310071513  0.083632364
     0.761818063  0.201265755  0.212785728
     0.577207995  0.334996999  0.286531688
     0.478616062  0.213566555  0.755934034
     0.557939127  0.284314311  0.871653260
     0.767171998  0.287155077  0.109659913
     0.685012938  0.147129513  0.219763868
     0.262482445  0.638582122  0.589013158
     0.105192823  0.590189964  0.479904187
     0.173804305  0.813374874  0.518844794
     0.186425281  0.864422797  0.349605823
     0.945834426  0.709959098  0.256881486
     0.832993603  0.807209897  0.205144443
     0.243172760  0.585175288  0.518500234
     0.097846799  0.560011789  0.564586489
     0.139866183  0.737142250  0.467335691
     0.182761811  0.773236258  0.370530170
     0.213679995  0.558781974  0.606474410
     0.880532312  0.770363156  0.293774874
     0.892136041  0.869331455  0.152230064
     0.012492340  0.662881570  0.602811470
     0.093576902  0.764632855  0.584719408
     0.140974607  0.816348694  0.258291532
     0.997317025  0.820727259  0.364544364
     0.899658055  0.781341375  0.138079771
     0.991501909  0.623347260  0.521346831
     0.030093006  0.823690477  0.541654681
     0.070427226  0.864528815  0.292947930
     0.990022950  0.725501415  0.375709175
     0.500466482  0.311448163  0.566844684
     0.488247846  0.178717204  0.606098045
     0.369989476  0.014012115  0.407498832
     0.275419886  0.956839150  0.455111754
     0.320550384  0.144530998  0.708792894
     0.318058949  0.142387834  0.840775363
     0.477858030  0.303623466  0.477386247
     0.431013742  0.201459769  0.534312897
     0.411225383  0.925192618  0.413902351
     0.275421476  0.923703058  0.544803431
     0.568657601  0.317013606  0.498748981
     0.236578407  0.167402376  0.735281624
     0.281082336  0.056522366  0.876816363
     0.443322493  0.075150882  0.563637623
     0.507967293  0.988999871  0.486790091
     0.205055387  0.017420611  0.530575744
     0.187062452  0.082730676  0.644609276
     0.359935208  0.052441712  0.831286705
     0.533872921  0.083398593  0.542953408
     0.500779236  0.006440802  0.391739177
     0.265555392  0.083421387  0.501765209
     0.244928957  0.154261379  0.617049759
     0.718005905  0.790135612  0.924742040
     0.693785971  0.658571916  0.956139428
     0.451268582  0.613635962  0.135939787
     0.414421842  0.768666860  0.074624500
     0.212743851  0.886411040  0.161693808
     0.317154611  0.871812288  0.326179968
     0.650800758  0.816884087  0.985458852
     0.638354183  0.699818426  0.020066303
     0.494555948  0.688718286  0.100240697
     0.413229134  0.728464633  0.991819964
     0.642319276  0.841024507  0.892003517
     0.235265898  0.794720914  0.149484184
     0.371272300  0.890466249  0.246266380
     0.606219966  0.573603365  0.978763782
     0.528815837  0.554626048  0.052684495
     0.272690439  0.725628637  0.077415967
     0.315573344  0.920003011  0.099943845
     0.298827718  0.946597760  0.269523666
     0.577674477  0.610354689  0.898020069
     0.443799577  0.563759544  0.010238386
     0.282096933  0.738684819  0.987277070
     0.362418162  0.840605734  0.125835161
     0.231901400  0.018821116  0.116790190
     0.070304244  0.002814086  0.255501655
     0.011797388  0.095024585  0.004944880
     0.928765443  0.225270471  0.089805293
     0.882180901  0.202517304  0.361524426
     0.860155551  0.393143923  0.336777051
     0.158622981  0.086424892  0.108951179
     0.060476857  0.073191659  0.197046217
     0.923188868  0.131581895  0.024703024
     0.896928078  0.149534013  0.142214493
     0.148357737  0.998970206  0.078204745
     0.953716904  0.250710677  0.410504457
     0.808535128  0.318037215  0.358013092
     0.969131999  0.983720148  0.185251656
[...]
      0.03221      5.66771      9.30529         0.943012      0.005803      1.713436
      3.29102      5.29620     10.85569         0.074143      0.886898      0.158207
      5.74442      7.93649     12.32269         0.235501     -0.441971      0.138398
      7.80539      8.50149     13.96999         0.079896     -0.259308     -0.230644
     11.51829      9.58699     16.71589        -0.923132      0.162682      0.459414
     14.30589      9.09229     16.92809         0.746755     -0.285123     -0.342001
     16.23929      4.71794     13.90729         0.577123     -0.059004      0.466769
     16.98259      6.07548     16.73619         1.079983     -0.241031      0.854207
     13.50409      8.32819     12.85229        -0.830412      0.103578      0.214245
     15.91239      9.12739     12.74079        -0.711093      0.359214     -0.786130
     14.40299      0.86238     16.29269         1.196813      1.225523     -0.249405
     14.58099      2.07674     17.57859        -0.113320      0.311501      0.175564
     15.83839      2.21725     14.18009         0.097768      1.078409      0.514854
     16.71389      8.32809     15.59749         0.129199      1.653366      1.079527
     17.26929      4.47173     15.46789         0.584659     -0.333012     -0.577744
     15.83699      6.37677     12.88319        -0.290349      0.098260     -0.381162
     15.37459      6.84596     16.94049         0.131771     -0.513466      0.134238
     15.80339     10.29179      9.89779         0.181178      0.031155      0.345848
     13.42029      6.80217     11.74119        -0.104985      0.659135      0.506918
     17.39139      7.50309     11.27139         0.391845      0.477261      0.391690
      0.21667      7.89149     10.68559        -0.860513      0.810960     -0.239179
     14.74939     10.31559     11.90099        -0.155668     -1.200548      0.190654
     15.56069      0.57946     17.50469         0.544236      1.194846     -0.527893
     14.58529      3.08947     15.24319         1.067763     -0.062041     -0.758429
     17.24899      7.10159     14.59009         0.124990     -0.213626     -0.608784
     14.25719      5.93297     13.64309         0.440583      0.288434      0.115074
     16.69599     10.94179     11.29079         0.224206     -0.501106     -0.281558
     18.41629      8.83649     12.01079         0.046919      0.405006      1.243255
      5.03916      6.60688     17.65389         0.187422     -0.680556      0.112482
      4.61149      9.71699     18.23979        -0.293170      0.220418      0.466487
      1.65043     12.24059      2.35043        -0.338619     -0.112138     -1.859103
      2.80867     15.27009      1.46621         0.653629      0.936088     -0.055698
      6.53541      5.14349     17.47409        -1.449756     -0.207400      1.215738
      8.05649      4.79609     16.85619         0.099899      0.614925     -0.145412
      7.25839      8.67639     17.36009        -0.027469      1.221062     -0.408986
      3.64367      8.78529      1.59718        -0.469614     -0.624433      0.535724
      4.53954      8.14449     17.16389         0.504748      0.432147     -0.175551
      2.56251     10.95569     18.53529        -0.095843     -0.246163      0.148904
      6.08140     10.01179      0.27955         0.718012      0.517286      0.447964
     18.74019     14.39629      0.92029        -0.489009     -0.643076     -0.037309
      0.64949     12.32309      0.79896         0.316971     -0.089164     -0.365670
      1.33976     17.34019     18.15839        -0.346758      0.524824      0.838989
      2.61297     16.11249     18.11599        -0.224284     -0.028026     -0.111746
      1.69436     14.55669      2.63118         0.241044     -0.674066     -1.141767
      6.82143      5.57468     15.79219         0.302288      0.171178      0.591138
      6.50771      7.71469     15.89719         0.456265      0.763175     -0.217707
      4.95841      9.71099      2.48407         0.143832     -0.208446      0.573602
      1.74729     10.10339      1.08876        -0.051555      0.092420     -0.119021
      0.38264     16.01729      1.20685         0.043583      0.419165      0.621470
      1.58925     16.51189     16.74289        -0.143119     -0.481133     -1.380607
     14.29909      0.62187      9.03049         0.082288     -0.070845      0.811229
     15.03729      0.04779      6.34288         0.519129      0.255174      0.601244
      1.21008      1.33662      9.11899        -0.535183     -1.363772      0.459649
     16.97529      1.51146      9.64679        -1.487941     -0.157172     -1.666924
     11.70559     18.39939      5.64068         0.282725     -0.046417     -0.204343
     10.78079      0.19592      6.94749        -1.001207     -0.348931      0.352574
     12.50519      1.82919      6.88865         0.802526     -0.074877      0.227304
     17.41509     18.80931      5.69987        -0.320316      0.547417      0.729839
     13.98229      2.47437      9.01359         0.153752     -0.714967      0.117192
     17.79549     18.11309      8.38229        -0.210990     -0.729767      0.348786
     15.83969     18.52489      7.90839        -0.059534      0.813325     -0.127328
     16.03219      2.63975     11.32439         0.523900      0.119589      0.292107
      1.11640     18.30649      9.70829         0.599695      0.577857     -0.104265
      0.68747      1.73355     12.68419        -0.349258      0.334023     -0.511935
      0.29805      3.08843     13.78279         0.480526     -0.443236      0.709063
     18.23799      2.72877     10.03709        -0.396020     -1.367698      0.075293
     11.36889     17.22729      6.91419        -0.592842     -0.235401      0.367493
     11.84429      1.54138      8.40059        -0.011084     -0.189804      0.952484
     17.13009      1.77268      5.76846        -0.363538     -0.719507      0.619091
      0.53878     18.21129      7.48479         0.197288     -0.476457     -0.146582
     16.68089      1.23521     12.21679        -0.280856     -0.385479     -0.453662
     18.28569      1.43469     13.91669        -0.016919      0.448592      0.014181
      8.32839     11.34269      6.46132         0.908987     -0.421286     -0.505164
      8.60539      8.12549      6.43028         0.026388     -0.296589      0.439738
      7.79949      3.67139      5.80604        -1.190230     -0.478174     -0.220586
      4.86482      1.78519      4.37601        -0.552843     -0.059481     -0.279159
      3.90653     11.94689      3.76208         0.357901      0.155362      0.855520
      4.94498     13.12289      4.72141        -0.266737     -0.621966     -0.143636
      7.05059     12.47509      5.16402        -0.548069     -0.416762      0.038824
      6.77220      7.52019      8.12109        -0.352379     -0.516444     -0.139499
      7.99949     10.16289      4.98994         1.013317      0.054896      0.058082
      6.40895      4.52250      7.81739        -0.242423     -0.316294     -0.257165
      7.40629      8.22729      5.23955        -0.494394      0.543825      0.273799
      2.52824      2.38766      5.04419         1.162835      0.004385      0.597985
      6.49658      4.29323      4.68559         0.402244      0.043926      0.536912
      3.31853      3.45499      8.22749         0.931012     -1.084823      0.106513
      2.98360      5.02720      7.88539        -0.163434      1.371744      0.111782
      4.81314      3.57957      4.29133        -0.533499     -0.360640      0.105510
      3.78182     12.06539      5.61589         0.358686     -0.117585     -0.453851
      6.12023     11.73979      6.56128         0.082125      0.691301      0.055181
      5.64751      7.42399      6.74271        -1.053517     -0.429682     -0.349769
      5.27127      5.31599      6.61036         1.364017     -0.579317      0.311078
      3.48028      1.97986      6.59170        -0.040540      0.126827     -0.626451
      1.73730      3.79813      7.70529        -0.562936      0.006557     -0.445136
      0.21043     10.55289      7.16059         0.090640     -0.419372     -0.836578
     16.85669     11.60879      7.37449         0.560338      0.389896      0.095959
     12.22129      7.63509      6.95909         0.754044      0.187413     -0.233680
     12.53979      9.95779      4.16750        -0.354890     -0.065200      0.192107
      1.31945     10.65879      4.89616         0.097245      0.495313      0.290821
      2.54447      9.70329      4.09635         0.077681     -0.216261     -0.273598
      0.03161      7.57769      6.36489        -0.655792     -0.816241     -0.072736
     14.60079     11.76719      6.70860        -0.456215     -0.117071      0.348575
     18.29989      9.34239      8.03939        -0.026607     -0.901863     -0.109360
     14.30559      8.83809      7.55129         0.325211     -0.810381      0.381494
     16.09599     10.19299      8.06229         0.161037     -0.635098      0.372759
     12.28339      8.78479      2.06903         0.433418      0.031002      1.049336
     13.37189      7.53629      5.57703        -0.288348      0.273961     -0.076629
      9.99429      6.75291      1.03090        -0.301937     -0.226960     -0.506762
     11.77079      6.67419      1.17550        -0.023382      0.298569      0.009480
     10.75999      9.87619      4.07106         0.021397     -0.363367     -0.172248
      2.64030      9.82589      5.84947        -0.371574     -0.103868     -0.001376
      1.36343      8.36499      7.08189         0.790362     -0.061114      0.223459
     15.58679     11.46919      5.32906         0.084787     -0.208325     -0.110002
     13.05709     10.00109      7.38659        -0.366998      0.487979     -0.124719
     12.60849      7.44829      3.25474         0.098430      0.047921      0.295639
     10.74979      5.62980      2.23734         0.125804      1.414534     -0.323890
      8.90159     13.14509      7.52619         1.355822      1.199519      0.802843
     15.39919     13.98199     11.92659         0.193062     -0.206588     -0.972632
     12.26019      0.11481     12.37769         0.041176      0.221884     -0.849740
      8.41959     16.98939     13.16689         0.215460     -0.317018     -1.697518
     12.47399      2.85061     12.97999        -0.214197     -0.161925      0.385775
     10.84069     16.15459     11.97419         0.418333     -0.362530      0.129523
      7.61839     16.21839     15.92919         0.304100     -0.008375      0.001943
      9.78629     12.96719     13.07979         1.187944     -1.463595     -0.663770
      4.55203     13.61719     14.95109        -0.698448     -0.189040     -1.778178
     11.59719     11.60589     11.23379        -0.677298     -0.320937      0.040818
      7.15509     12.26349     14.58459         0.237374      0.119272     -0.695713
      3.82555     15.99089     13.14699        -0.712122      0.163464      0.383227
     10.81809      3.87900     16.14679         0.148826      0.299519     -0.374879
     13.99119      3.38548      2.92641        -0.223553     -1.264574     -1.167527
     10.15759      0.56254     16.40579         0.050256     -0.175454     -0.055256
     12.47479      4.44654      0.49399         0.515238     -0.139446     -0.955629
     11.75799      3.21434      5.03469         0.342713     -0.014122      0.056829
      0.84227     13.28919      9.20119        -0.486582     -1.439396      1.508745
      1.36265     14.32529      5.50920        -0.852553     -0.219732      0.546683
      2.49447     12.01519     11.64609        -1.119673     -0.308272     -1.905564
      2.23961     15.55729      8.17009        -0.875379     -0.047392      0.638269
     17.79129     15.07319      4.55811        -1.966235      0.631458     -3.544679
      8.60779      1.29614      8.00759         0.335252      0.900912      0.928233
      5.16545      0.89862     11.10909        -0.835571      0.687039      0.151504
     10.09459      3.77486      9.58479         0.035313     -0.225262     -0.440387
      6.69956     18.13439      9.37629        -1.812468     -0.118397     -0.354426
      5.49791      1.80740     13.62369         0.127498     -0.368984      2.669719
     10.17989     12.26999      1.05994         0.101178     -1.018216     -0.526318
      6.34387     15.16839      0.96529         0.398010      0.015391     -0.720190
     10.72749     14.39219     17.81149        -0.727173      1.278253     -1.425804
      7.44439     11.89409      2.14323        -1.912698     -1.199162     -0.185712
      5.20422     15.84249      3.91999         1.279167      0.358403     -0.475922
      0.03851     18.54629      1.36592        -0.562086      0.211487     -0.548502
     18.11489      3.34503      4.28368        -0.562556     -0.029293     -1.259566
      2.58429      0.41669      3.16420         1.377205     -0.540223     -0.113512
     18.38569      2.86082      1.43658         0.032034     -0.053071      0.133081
     16.72069      5.56395      5.81898         0.052193     -1.074245      0.949740
     13.48309     15.92359      1.15567         0.249161      0.229348     -0.588398
      9.32909      0.48885      2.41962        -0.243271     -0.559721      0.008496
     15.84239     17.03329     17.46759         0.317049     -1.257946     -0.414758
     12.49409     18.66929      2.06546         0.207418      0.349806      0.287606
      7.68359      2.75829      1.11108        -0.771222     -1.084118      0.263986
      2.75028      1.58062     16.16539         0.122748      1.328210      1.366613
      2.95659      7.76579     13.77439        -0.455047     -1.265240      0.040717
      0.33513     11.66899     16.96309        -0.061073     -0.052381     -0.589496
      3.55501      4.71648     15.86159         0.636157      0.961845     -1.610682
      1.10485      9.59059     15.11789         0.224080     -0.357872     -0.169151
      3.74361      6.47763      2.50168         1.676115     -0.581998      0.547408
     17.73239      7.01509      1.68065         1.072107      0.379552     -1.898622
     13.76529     11.61729      1.66839        -0.055180      0.151341     -0.308421
      1.87399      6.91319      0.47398        -1.191126     -0.355666      0.799112
     15.79769      9.44339      1.74449         0.129550     -0.158302      0.659217
      1.80237      6.44760     10.00879         0.155205      1.064505     -0.263082
      7.54339      6.84707     12.68359        -0.180070     -0.089416     -0.157428
     12.59299      7.98519     17.46249         1.665184      1.343062     -0.184765
      5.11664      6.78311      9.86799         1.075649     -1.089567      0.813491
     10.24049      8.12999     14.69859         0.540662      0.409653     -0.127034
     16.19689      2.28009     16.26429        -0.581055     -0.709586     -0.472059
     15.23909      7.65669     14.39649        -0.884777      0.792875     -0.605183
     17.47069      9.28419     10.23249         0.824610     -0.698015     -0.214808
     15.42989      5.20233     15.78899        -0.645111     -1.198247     -0.887724
     14.78599      8.24069     11.20189        -1.140204     -0.545103      1.460852
      7.77079      6.82452     17.22559        -0.606512     -0.813343      0.231763
      3.64856     10.87049      1.51159        -0.739640      1.151095      0.534432
      0.65943     15.36389     18.16559         0.598539     -0.906307     -0.513407
      5.45892      8.04289      0.20042        -0.100636     -0.509465      0.109872
      2.53432     13.43649      0.88093        -1.061031     -1.961618      0.404520
     12.69509     18.67109      7.47589         0.222948     -0.436035      0.300768
     18.13209      1.05053      7.38449         0.979244      0.725935      0.565856
     17.67809      2.91301     12.56459        -0.150762      0.753123     -1.215225
     15.16969      1.71867      7.56029        -0.491726      0.497345      0.785776
     18.56809      0.63849     10.47539        -0.751696      0.661647      2.090635
      5.49255     11.05399      4.78217        -0.302404      0.729458     -0.406492
      7.28099      5.99676      6.69372        -0.851716      1.283204     -0.125203
      3.21421      3.99972      6.17581        -0.243031      0.028059      0.606703
      7.31029      9.64639      6.82770        -1.237655     -0.838436      1.154074
      5.89459      2.70128      5.80162        -0.396698     -0.677257      0.682815
      1.05403      8.63179      5.03657         0.510286      0.586053      0.491449
     14.42199      9.88669      5.77083        -0.593311     -0.285356      0.564325
     10.64819      7.78219      2.62268        -0.137130     -1.444696     -0.206340
     17.22349      9.82749      6.28817         2.037683     -0.673096      1.142951
     11.56469      8.66229      5.45624        -0.228403     -0.219548      1.100506
      9.31169     15.73329      7.36659         0.892025     -0.973077     -0.188379
     13.17489     13.86029     13.24539        -1.745596     -0.642008     -0.968081
     14.80479     15.51819     13.81899         0.479460      0.228677      0.108054
      9.24329     14.27589      5.35723        -0.246750     -0.194684     -0.688526
     15.54989     13.40609      9.54469         0.639239     -0.635993     -0.692706
      8.68229     11.73409      9.54689         0.026951      0.505019      0.111648
      9.44779     14.05869      9.95479         1.423986      1.073924      0.989744
     13.45149     14.30609     10.34539        -2.367662      0.272492      0.183097
      9.58979     14.43759      6.73447        -1.082888      0.015686      0.795889
     14.56729     14.24489     13.19159         0.410937      0.837158      2.375675
      8.71819     13.12609      9.14579        -1.520344     -1.993132     -3.041659
     14.87519     14.24939     10.46139         1.516439      0.016034      0.569180
 -----------------------------------------------------------------------------------
    total drift:                               -0.082268     -0.008744     -0.051794


--------------------------------------------------------------------------------------------------------



  FREE ENERGIE OF THE ION-ELECTRON SYSTEM (eV)
  ---------------------------------------------------
  free  energy   TOTEN  =     -3424.98276421 eV

  energy  without entropy=    -3424.98276421  energy(sigma->0) =    -3424.98276421



--------------------------------------------------------------------------------------------------------


    POTLOK:  cpu time      1.0939: real time      1.0971


--------------------------------------------------------------------------------------------------------


 writing wavefunctions
     LOOP+:  cpu time    384.2899: real time    387.0158
    4ORBIT:  cpu time      0.0000: real time      0.0000

 total amount of memory used by VASP MPI-rank0   117418. kBytes
=======================================================================

   base                                    :      30000. kBytes
   nonlr-proj                              :       2004. kBytes
   fftplans                                :      11368. kBytes
   grid                                    :      30729. kBytes
   one-center                              :        202. kBytes
   wavefun                                 :      43115. kBytes

  
  
 General timing and accounting informations for this job:
 ========================================================
  
                  Total CPU time used (sec):      400.715
                            User time (sec):      398.144
                          System time (sec):        2.571
                         Elapsed time (sec):      405.062
  
                   Maximum memory used (kb):     1955292.
                   Average memory used (kb):          N/A
  
                          Minor page faults:       555015
                          Major page faults:           20
                 Voluntary context switches:        12728
